<?xml version="1.0" encoding="UTF-8"?>

<!-- generated on 03/19/19 20:23:02 by Eclipse SUMO GUI Version 1.0.1
<configuration xmlns:xsi="http://www.w3.org/2001/XMLSchema-instance" xsi:noNamespaceSchemaLocation="http://sumo.dlr.de/xsd/sumoConfiguration.xsd">

    <input>
        <net-file value="b.net.xml"/>
        <route-files value="b.rou.xml"/>
        <additional-files value="b.det.xml,vtypes.add.xml,bus_stops.add.xml,busses.rou.xml,tls.add.xml"/>
    </input>

    <output>
        <fcd-output value="fcd.xml"/>
        <fcd-output.signals value="true"/>
        <queue-output value="queue.xml"/>
        <tripinfo-output value="tripinfo.xml"/>
    </output>

    <time>
        <begin value="0"/>
        <end value="5400"/>
    </time>

    <processing>
        <ignore-junction-blocker value="20"/>
        <collision.action value="remove"/>
        <time-to-teleport value="-1"/>
    </processing>

    <report>
        <log value="sumo_log.txt"/>
        <no-step-log value="true"/>
    </report>

    <traci_server>
        <remote-port value="62305"/>
    </traci_server>

</configuration>
-->

<fcd-export xmlns:xsi="http://www.w3.org/2001/XMLSchema-instance" xsi:noNamespaceSchemaLocation="http://sumo.dlr.de/xsd/fcd_file.xsd">
    <timestep time="0.00">
        <vehicle id="0.0" x="5.10" y="398.00" angle="90.00" type="passenger1" speed="0.00" pos="5.10" lane="edge-AW2-AW1_3" slope="0.00" signals="0"/>
        <vehicle id="1.0" x="5.10" y="390.00" angle="90.00" type="taxi" speed="0.00" pos="5.10" lane="edge-AW2-AW1_1" slope="0.00" signals="0"/>
        <vehicle id="10.0" x="700.31" y="5.34" angle="345.96" type="passenger1" speed="0.00" pos="5.10" lane="edge-AS2-AS1_0" slope="0.00" signals="0"/>
        <vehicle id="112.0" x="2720.20" y="794.90" angle="180.00" type="passenger5" speed="0.00" pos="5.10" lane="edge-EN2-EN1_1" slope="0.00" signals="0"/>
        <vehicle id="114.0" x="3219.90" y="410.63" angle="270.00" type="passenger4" speed="0.00" pos="5.10" lane="edge-EE2-EE1_1" slope="0.00" signals="0"/>
        <vehicle id="121.0" x="3219.90" y="406.38" angle="270.00" type="passenger5" speed="0.00" pos="5.10" lane="edge-EE2-EE1_2" slope="0.00" signals="0"/>
        <vehicle id="123.0" x="3219.90" y="402.13" angle="270.00" type="passenger1" speed="0.00" pos="5.10" lane="edge-EE2-EE1_3" slope="0.00" signals="0"/>
        <vehicle id="2.0" x="4.60" y="394.00" angle="90.00" type="passenger3" speed="0.00" pos="4.60" lane="edge-AW2-AW1_2" slope="0.00" signals="0"/>
        <vehicle id="22.0" x="499.69" y="794.66" angle="165.96" type="passenger4" speed="0.00" pos="5.10" lane="edge-AN2-AN1_1" slope="0.00" signals="0"/>
        <vehicle id="30.0" x="977.22" y="4.86" angle="7.12" type="passenger5" speed="0.00" pos="5.10" lane="edge-BS2-BS1_1" slope="0.00" signals="0"/>
        <vehicle id="40.0" x="1083.11" y="816.81" angle="189.46" type="taxi" speed="0.00" pos="5.10" lane="edge-BN2-BN1_0" slope="0.00" signals="0"/>
        <vehicle id="44.0" x="1089.43" y="815.76" angle="189.46" type="passenger1" speed="0.00" pos="5.10" lane="edge-BN2-BN1_2" slope="0.00" signals="0"/>
        <vehicle id="47.0" x="1086.27" y="816.29" angle="189.46" type="taxi" speed="0.00" pos="5.10" lane="edge-BN2-BN1_1" slope="0.00" signals="0"/>
        <vehicle id="81.0" x="2204.30" y="794.70" angle="170.07" type="taxi" speed="0.00" pos="5.10" lane="edge-DN1-DO0_0" slope="0.00" signals="0"/>
        <vehicle id="92.0" x="2726.60" y="5.10" angle="0.00" type="passenger5" speed="0.00" pos="5.10" lane="edge-ES2-ES1_1" slope="0.00" signals="0"/>
        <vehicle id="AA1" x="12.10" y="386.00" angle="90.00" type="bus" speed="0.00" pos="12.10" lane="edge-AW2-AW1_0" slope="0.00" signals="0"/>
        <vehicle id="AO1" x="498.27" y="787.10" angle="165.96" type="bus" speed="0.00" pos="12.10" lane="edge-AN2-AN1_0" slope="0.00" signals="0"/>
        <vehicle id="BA1" x="981.26" y="11.41" angle="7.13" type="bus" speed="0.00" pos="12.10" lane="edge-BS2-BS1_0" slope="0.00" signals="0"/>
        <vehicle id="BJ1" x="1091.43" y="808.32" angle="189.46" type="bus" speed="0.00" pos="12.10" lane="edge-BN2-BN1_3" slope="0.00" signals="0"/>
        <vehicle id="CA1" x="1746.60" y="12.10" angle="0.00" type="bus" speed="0.00" pos="12.10" lane="edge-CS2-CS1_0" slope="0.00" signals="0"/>
        <vehicle id="CJ1" x="1743.40" y="787.90" angle="180.00" type="bus" speed="0.00" pos="12.10" lane="edge-CN2-CN1_0" slope="0.00" signals="0"/>
        <vehicle id="DA1" x="2237.79" y="11.88" angle="5.71" type="bus" speed="0.00" pos="12.10" lane="edge-DS2-DS1_0" slope="0.00" signals="0"/>
        <vehicle id="EA1" x="3212.90" y="414.88" angle="270.00" type="bus" speed="0.00" pos="12.10" lane="edge-EE2-EE1_0" slope="0.00" signals="0"/>
        <vehicle id="EJ1" x="2729.80" y="12.10" angle="0.00" type="bus" speed="0.00" pos="12.10" lane="edge-ES2-ES1_0" slope="0.00" signals="0"/>
        <vehicle id="ES1" x="2717.00" y="787.90" angle="180.00" type="bus" speed="0.00" pos="12.10" lane="edge-EN2-EN1_0" slope="0.00" signals="0"/>
    </timestep>
    <timestep time="1.00">
        <vehicle id="0.0" x="6.96" y="398.00" angle="90.00" type="passenger1" speed="1.86" pos="6.96" lane="edge-AW2-AW1_3" slope="0.00" signals="0"/>
        <vehicle id="1.0" x="7.33" y="390.00" angle="90.00" type="taxi" speed="2.23" pos="7.33" lane="edge-AW2-AW1_1" slope="0.00" signals="0"/>
        <vehicle id="10.0" x="699.70" y="7.80" angle="345.96" type="passenger1" speed="2.54" pos="7.64" lane="edge-AS2-AS1_0" slope="0.00" signals="0"/>
        <vehicle id="112.0" x="2720.20" y="792.55" angle="180.00" type="passenger5" speed="2.35" pos="7.45" lane="edge-EN2-EN1_1" slope="0.00" signals="0"/>
        <vehicle id="114.0" x="3218.20" y="410.63" angle="270.00" type="passenger4" speed="1.70" pos="6.80" lane="edge-EE2-EE1_1" slope="0.00" signals="0"/>
        <vehicle id="121.0" x="3217.55" y="406.38" angle="270.00" type="passenger5" speed="2.35" pos="7.45" lane="edge-EE2-EE1_2" slope="0.00" signals="0"/>
        <vehicle id="123.0" x="3218.07" y="402.13" angle="270.00" type="passenger1" speed="1.83" pos="6.93" lane="edge-EE2-EE1_3" slope="0.00" signals="0"/>
        <vehicle id="2.0" x="7.03" y="394.00" angle="90.00" type="passenger3" speed="2.43" pos="7.03" lane="edge-AW2-AW1_2" slope="0.00" signals="0"/>
        <vehicle id="22.0" x="500.24" y="792.46" angle="165.96" type="passenger4" speed="2.27" pos="7.37" lane="edge-AN2-AN1_1" slope="0.00" signals="0"/>
        <vehicle id="30.0" x="977.44" y="6.59" angle="7.12" type="passenger5" speed="1.75" pos="6.85" lane="edge-BS2-BS1_1" slope="0.00" signals="0"/>
        <vehicle id="40.0" x="1082.82" y="815.05" angle="189.46" type="taxi" speed="1.78" pos="6.88" lane="edge-BN2-BN1_0" slope="0.00" signals="0"/>
        <vehicle id="44.0" x="1089.15" y="814.06" angle="189.46" type="passenger1" speed="1.73" pos="6.83" lane="edge-BN2-BN1_2" slope="0.00" signals="0"/>
        <vehicle id="47.0" x="1085.98" y="814.55" angle="189.46" type="taxi" speed="1.76" pos="6.86" lane="edge-BN2-BN1_1" slope="0.00" signals="0"/>
        <vehicle id="81.0" x="2204.57" y="793.15" angle="170.07" type="taxi" speed="1.57" pos="6.67" lane="edge-DN1-DO0_0" slope="0.00" signals="0"/>
        <vehicle id="92.0" x="2726.60" y="6.43" angle="0.00" type="passenger5" speed="1.33" pos="6.43" lane="edge-ES2-ES1_1" slope="0.00" signals="0"/>
        <vehicle id="AA1" x="13.56" y="386.00" angle="90.00" type="bus" speed="1.46" pos="13.56" lane="edge-AW2-AW1_0" slope="0.00" signals="0"/>
        <vehicle id="AO1" x="498.69" y="785.44" angle="165.96" type="bus" speed="1.71" pos="13.81" lane="edge-AN2-AN1_0" slope="0.00" signals="0"/>
        <vehicle id="BA1" x="981.46" y="13.03" angle="7.13" type="bus" speed="1.63" pos="13.73" lane="edge-BS2-BS1_0" slope="0.00" signals="0"/>
        <vehicle id="BJ1" x="1091.00" y="805.77" angle="189.46" type="bus" speed="2.59" pos="14.69" lane="edge-BN2-BN1_3" slope="0.00" signals="0"/>
        <vehicle id="CA1" x="1746.60" y="14.30" angle="0.00" type="bus" speed="2.20" pos="14.30" lane="edge-CS2-CS1_0" slope="0.00" signals="0"/>
        <vehicle id="CJ1" x="1743.40" y="785.97" angle="180.00" type="bus" speed="1.93" pos="14.03" lane="edge-CN2-CN1_0" slope="0.00" signals="0"/>
        <vehicle id="DA1" x="2237.93" y="13.25" angle="5.71" type="bus" speed="1.38" pos="13.48" lane="edge-DS2-DS1_0" slope="0.00" signals="0"/>
        <vehicle id="EA1" x="3210.62" y="414.88" angle="270.00" type="bus" speed="2.28" pos="14.38" lane="edge-EE2-EE1_0" slope="0.00" signals="0"/>
        <vehicle id="EJ1" x="2729.80" y="13.77" angle="0.00" type="bus" speed="1.67" pos="13.77" lane="edge-ES2-ES1_0" slope="0.00" signals="0"/>
        <vehicle id="ES1" x="2717.00" y="785.94" angle="180.00" type="bus" speed="1.96" pos="14.06" lane="edge-EN2-EN1_0" slope="0.00" signals="0"/>
    </timestep>
    <timestep time="2.00">
        <vehicle id="0.0" x="11.26" y="398.00" angle="90.00" type="passenger1" speed="4.30" pos="11.26" lane="edge-AW2-AW1_3" slope="0.00" signals="0"/>
        <vehicle id="1.0" x="10.75" y="390.00" angle="90.00" type="taxi" speed="3.42" pos="10.75" lane="edge-AW2-AW1_1" slope="0.00" signals="0"/>
        <vehicle id="10.0" x="698.63" y="12.07" angle="345.96" type="passenger1" speed="4.40" pos="12.04" lane="edge-AS2-AS1_0" slope="0.00" signals="0"/>
        <vehicle id="11.0" x="700.43" y="4.85" angle="345.96" type="passenger3" speed="0.00" pos="4.60" lane="edge-AS2-AS1_0" slope="0.00" signals="0"/>
        <vehicle id="112.0" x="2720.20" y="788.29" angle="180.00" type="passenger5" speed="4.27" pos="11.71" lane="edge-EN2-EN1_1" slope="0.00" signals="0"/>
        <vehicle id="113.0" x="2720.20" y="795.40" angle="180.00" type="passenger2" speed="0.00" pos="4.60" lane="edge-EN2-EN1_1" slope="0.00" signals="0"/>
        <vehicle id="114.0" x="3214.21" y="410.63" angle="270.00" type="passenger4" speed="3.99" pos="10.79" lane="edge-EE2-EE1_1" slope="0.00" signals="0"/>
        <vehicle id="121.0" x="3212.84" y="406.38" angle="270.00" type="passenger5" speed="4.71" pos="12.16" lane="edge-EE2-EE1_2" slope="0.00" signals="0"/>
        <vehicle id="123.0" x="3213.94" y="402.13" angle="270.00" type="passenger1" speed="4.13" pos="11.06" lane="edge-EE2-EE1_3" slope="0.00" signals="0"/>
        <vehicle id="2.0" x="11.68" y="394.00" angle="90.00" type="passenger3" speed="4.65" pos="11.68" lane="edge-AW2-AW1_2" slope="0.00" signals="0"/>
        <vehicle id="22.0" x="501.37" y="787.94" angle="165.96" type="passenger4" speed="4.66" pos="12.03" lane="edge-AN2-AN1_1" slope="0.00" signals="0"/>
        <vehicle id="23.0" x="499.69" y="794.66" angle="165.96" type="taxi" speed="0.00" pos="5.10" lane="edge-AN2-AN1_1" slope="0.00" signals="0"/>
        <vehicle id="3.0" x="4.60" y="390.00" angle="90.00" type="passenger3" speed="0.00" pos="4.60" lane="edge-AW2-AW1_1" slope="0.00" signals="0"/>
        <vehicle id="30.0" x="977.93" y="10.52" angle="7.12" type="passenger5" speed="3.95" pos="10.80" lane="edge-BS2-BS1_1" slope="0.00" signals="0"/>
        <vehicle id="4.0" x="5.10" y="394.00" angle="90.00" type="passenger5" speed="0.00" pos="5.10" lane="edge-AW2-AW1_2" slope="0.00" signals="0"/>
        <vehicle id="40.0" x="1082.17" y="811.18" angle="189.46" type="taxi" speed="3.93" pos="10.81" lane="edge-BN2-BN1_0" slope="0.00" signals="0"/>
        <vehicle id="41.0" x="1083.19" y="817.30" angle="189.46" type="passenger3" speed="0.00" pos="4.60" lane="edge-BN2-BN1_0" slope="0.00" signals="0"/>
        <vehicle id="44.0" x="1088.58" y="810.67" angle="189.46" type="passenger1" speed="3.43" pos="10.26" lane="edge-BN2-BN1_2" slope="0.00" signals="0"/>
        <vehicle id="47.0" x="1085.38" y="810.92" angle="189.46" type="taxi" speed="3.68" pos="10.55" lane="edge-BN2-BN1_1" slope="0.00" signals="0"/>
        <vehicle id="81.0" x="2205.22" y="789.44" angle="170.07" type="taxi" speed="3.77" pos="10.44" lane="edge-DN1-DO0_0" slope="0.00" signals="0"/>
        <vehicle id="92.0" x="2726.60" y="9.17" angle="0.00" type="passenger5" speed="2.74" pos="9.17" lane="edge-ES2-ES1_1" slope="0.00" signals="0"/>
        <vehicle id="AA1" x="17.28" y="386.00" angle="90.00" type="bus" speed="3.72" pos="17.28" lane="edge-AW2-AW1_0" slope="0.00" signals="0"/>
        <vehicle id="AO1" x="499.68" y="781.47" angle="165.96" type="bus" speed="4.09" pos="17.90" lane="edge-AN2-AN1_0" slope="0.00" signals="0"/>
        <vehicle id="BA1" x="981.83" y="15.99" angle="7.13" type="bus" speed="2.99" pos="16.72" lane="edge-BS2-BS1_0" slope="0.00" signals="0"/>
        <vehicle id="BJ1" x="1090.16" y="800.68" angle="189.46" type="bus" speed="5.15" pos="19.85" lane="edge-BN2-BN1_3" slope="0.00" signals="0"/>
        <vehicle id="CA1" x="1746.60" y="18.05" angle="0.00" type="bus" speed="3.75" pos="18.05" lane="edge-CS2-CS1_0" slope="0.00" signals="0"/>
        <vehicle id="CJ1" x="1743.40" y="781.75" angle="180.00" type="bus" speed="4.22" pos="18.25" lane="edge-CN2-CN1_0" slope="0.00" signals="0"/>
        <vehicle id="DA1" x="2238.24" y="16.35" angle="5.71" type="bus" speed="3.11" pos="16.59" lane="edge-DS2-DS1_0" slope="0.00" signals="0"/>
        <vehicle id="EA1" x="3206.74" y="414.88" angle="270.00" type="bus" speed="3.88" pos="18.26" lane="edge-EE2-EE1_0" slope="0.00" signals="0"/>
        <vehicle id="EJ1" x="2729.80" y="16.89" angle="0.00" type="bus" speed="3.12" pos="16.89" lane="edge-ES2-ES1_0" slope="0.00" signals="0"/>
        <vehicle id="ES1" x="2717.00" y="782.09" angle="180.00" type="bus" speed="3.85" pos="17.91" lane="edge-EN2-EN1_0" slope="0.00" signals="0"/>
    </timestep>
    <timestep time="3.00">
        <vehicle id="0.0" x="16.96" y="398.00" angle="90.00" type="passenger1" speed="5.69" pos="16.96" lane="edge-AW2-AW1_3" slope="0.00" signals="0"/>
        <vehicle id="1.0" x="15.33" y="390.00" angle="90.00" type="taxi" speed="4.58" pos="15.33" lane="edge-AW2-AW1_1" slope="0.00" signals="0"/>
        <vehicle id="10.0" x="696.99" y="18.63" angle="345.96" type="passenger1" speed="6.76" pos="18.80" lane="edge-AS2-AS1_0" slope="0.00" signals="0"/>
        <vehicle id="11.0" x="700.09" y="6.21" angle="345.96" type="passenger3" speed="1.40" pos="6.00" lane="edge-AS2-AS1_0" slope="0.00" signals="0"/>
        <vehicle id="112.0" x="2720.20" y="782.45" angle="180.00" type="passenger5" speed="5.84" pos="17.55" lane="edge-EN2-EN1_1" slope="0.00" signals="0"/>
        <vehicle id="113.0" x="2720.20" y="795.07" angle="180.00" type="passenger2" speed="0.33" pos="4.93" lane="edge-EN2-EN1_1" slope="0.00" signals="0"/>
        <vehicle id="114.0" x="3208.31" y="410.63" angle="270.00" type="passenger4" speed="5.91" pos="16.69" lane="edge-EE2-EE1_1" slope="0.00" signals="0"/>
        <vehicle id="115.0" x="3219.90" y="410.63" angle="270.00" type="taxi" speed="0.00" pos="5.10" lane="edge-EE2-EE1_1" slope="0.00" signals="0"/>
        <vehicle id="121.0" x="3206.33" y="406.38" angle="270.00" type="passenger5" speed="6.52" pos="18.67" lane="edge-EE2-EE1_2" slope="0.00" signals="0"/>
        <vehicle id="123.0" x="3207.62" y="402.13" angle="270.00" type="passenger1" speed="6.33" pos="17.38" lane="edge-EE2-EE1_3" slope="0.00" signals="0"/>
        <vehicle id="2.0" x="19.04" y="394.00" angle="90.00" type="passenger3" speed="7.36" pos="19.04" lane="edge-AW2-AW1_2" slope="0.00" signals="0"/>
        <vehicle id="22.0" x="503.13" y="780.91" angle="165.96" type="passenger4" speed="7.25" pos="19.28" lane="edge-AN2-AN1_1" slope="0.00" signals="0"/>
        <vehicle id="23.0" x="499.76" y="794.36" angle="165.96" type="taxi" speed="0.31" pos="5.41" lane="edge-AN2-AN1_1" slope="0.00" signals="0"/>
        <vehicle id="3.0" x="4.73" y="390.00" angle="90.00" type="passenger3" speed="0.13" pos="4.73" lane="edge-AW2-AW1_1" slope="0.00" signals="0"/>
        <vehicle id="30.0" x="978.58" y="15.69" angle="7.12" type="passenger5" speed="5.21" pos="16.01" lane="edge-BS2-BS1_1" slope="0.00" signals="0"/>
        <vehicle id="31.0" x="977.22" y="4.86" angle="7.12" type="taxi" speed="0.00" pos="5.10" lane="edge-BS2-BS1_1" slope="0.00" signals="0"/>
        <vehicle id="4.0" x="5.63" y="394.00" angle="90.00" type="passenger5" speed="0.53" pos="5.63" lane="edge-AW2-AW1_2" slope="0.00" signals="0"/>
        <vehicle id="40.0" x="1081.20" y="805.35" angle="189.46" type="taxi" speed="5.91" pos="16.72" lane="edge-BN2-BN1_0" slope="0.00" signals="0"/>
        <vehicle id="41.0" x="1083.17" y="817.15" angle="189.46" type="passenger3" speed="0.15" pos="4.75" lane="edge-BN2-BN1_0" slope="0.00" signals="0"/>
        <vehicle id="44.0" x="1087.62" y="804.91" angle="189.46" type="passenger1" speed="5.84" pos="16.10" lane="edge-BN2-BN1_2" slope="0.00" signals="0"/>
        <vehicle id="47.0" x="1084.40" y="805.05" angle="189.46" type="taxi" speed="5.95" pos="16.50" lane="edge-BN2-BN1_1" slope="0.00" signals="0"/>
        <vehicle id="49.0" x="1086.27" y="816.29" angle="189.46" type="taxi" speed="0.00" pos="5.10" lane="edge-BN2-BN1_1" slope="0.00" signals="0"/>
        <vehicle id="81.0" x="2206.20" y="783.86" angle="170.07" type="taxi" speed="5.66" pos="16.11" lane="edge-DN1-DO0_0" slope="0.00" signals="0"/>
        <vehicle id="82.0" x="2204.30" y="794.70" angle="170.07" type="passenger1" speed="0.00" pos="5.10" lane="edge-DN1-DO0_0" slope="0.00" signals="0"/>
        <vehicle id="92.0" x="2726.60" y="13.46" angle="0.00" type="passenger5" speed="4.28" pos="13.46" lane="edge-ES2-ES1_1" slope="0.00" signals="0"/>
        <vehicle id="93.0" x="2726.60" y="5.10" angle="0.00" type="passenger1" speed="0.00" pos="5.10" lane="edge-ES2-ES1_1" slope="0.00" signals="0"/>
        <vehicle id="AA1" x="22.40" y="386.00" angle="90.00" type="bus" speed="5.12" pos="22.40" lane="edge-AW2-AW1_0" slope="0.00" signals="0"/>
        <vehicle id="AO1" x="501.24" y="775.24" angle="165.96" type="bus" speed="6.42" pos="24.33" lane="edge-AN2-AN1_0" slope="0.00" signals="0"/>
        <vehicle id="BA1" x="982.50" y="21.30" angle="7.13" type="bus" speed="5.35" pos="22.07" lane="edge-BS2-BS1_0" slope="0.00" signals="0"/>
        <vehicle id="BJ1" x="1089.38" y="796.02" angle="189.46" type="bus" speed="4.73" pos="24.57" lane="edge-BN2-BN1_3" slope="0.00" signals="8"/>
        <vehicle id="CA1" x="1746.60" y="23.45" angle="0.00" type="bus" speed="5.41" pos="23.45" lane="edge-CS2-CS1_0" slope="0.00" signals="0"/>
        <vehicle id="CJ1" x="1743.40" y="775.03" angle="180.00" type="bus" speed="6.72" pos="24.97" lane="edge-CN2-CN1_0" slope="0.00" signals="0"/>
        <vehicle id="DA1" x="2238.77" y="21.65" angle="5.71" type="bus" speed="5.33" pos="21.92" lane="edge-DS2-DS1_0" slope="0.00" signals="0"/>
        <vehicle id="EA1" x="3201.40" y="414.88" angle="270.00" type="bus" speed="5.34" pos="23.60" lane="edge-EE2-EE1_0" slope="0.00" signals="0"/>
        <vehicle id="EJ1" x="2729.80" y="21.84" angle="0.00" type="bus" speed="4.94" pos="21.84" lane="edge-ES2-ES1_0" slope="0.00" signals="0"/>
        <vehicle id="ES1" x="2717.00" y="776.88" angle="180.00" type="bus" speed="5.21" pos="23.12" lane="edge-EN2-EN1_0" slope="0.00" signals="0"/>
    </timestep>
    <timestep time="4.00">
        <vehicle id="0.0" x="24.66" y="398.00" angle="90.00" type="passenger1" speed="7.70" pos="24.66" lane="edge-AW2-AW1_3" slope="0.00" signals="0"/>
        <vehicle id="1.0" x="21.10" y="390.00" angle="90.00" type="taxi" speed="5.76" pos="21.10" lane="edge-AW2-AW1_1" slope="0.00" signals="0"/>
        <vehicle id="10.0" x="694.87" y="27.12" angle="345.96" type="passenger1" speed="8.76" pos="27.55" lane="edge-AS2-AS1_0" slope="0.00" signals="0"/>
        <vehicle id="11.0" x="699.30" y="9.39" angle="345.96" type="passenger3" speed="3.28" pos="9.28" lane="edge-AS2-AS1_0" slope="0.00" signals="0"/>
        <vehicle id="112.0" x="2720.20" y="774.94" angle="180.00" type="passenger5" speed="7.50" pos="25.06" lane="edge-EN2-EN1_1" slope="0.00" signals="0"/>
        <vehicle id="113.0" x="2720.20" y="792.33" angle="180.00" type="passenger2" speed="2.74" pos="7.67" lane="edge-EN2-EN1_1" slope="0.00" signals="0"/>
        <vehicle id="114.0" x="3200.27" y="410.63" angle="270.00" type="passenger4" speed="8.04" pos="24.73" lane="edge-EE2-EE1_1" slope="0.00" signals="0"/>
        <vehicle id="115.0" x="3218.02" y="410.63" angle="270.00" type="taxi" speed="1.88" pos="6.98" lane="edge-EE2-EE1_1" slope="0.00" signals="0"/>
        <vehicle id="121.0" x="3198.11" y="406.38" angle="270.00" type="passenger5" speed="8.22" pos="26.89" lane="edge-EE2-EE1_2" slope="0.00" signals="0"/>
        <vehicle id="123.0" x="3199.76" y="402.13" angle="270.00" type="passenger1" speed="7.85" pos="25.24" lane="edge-EE2-EE1_3" slope="0.00" signals="0"/>
        <vehicle id="2.0" x="27.98" y="394.00" angle="90.00" type="passenger3" speed="8.94" pos="27.98" lane="edge-AW2-AW1_2" slope="0.00" signals="0"/>
        <vehicle id="22.0" x="505.43" y="771.71" angle="165.96" type="passenger4" speed="9.49" pos="28.76" lane="edge-AN2-AN1_1" slope="0.00" signals="0"/>
        <vehicle id="23.0" x="500.20" y="792.62" angle="165.96" type="taxi" speed="1.80" pos="7.21" lane="edge-AN2-AN1_1" slope="0.00" signals="0"/>
        <vehicle id="3.0" x="7.24" y="390.00" angle="90.00" type="passenger3" speed="2.51" pos="7.24" lane="edge-AW2-AW1_1" slope="0.00" signals="0"/>
        <vehicle id="30.0" x="979.52" y="23.21" angle="7.12" type="passenger5" speed="7.58" pos="23.59" lane="edge-BS2-BS1_1" slope="0.00" signals="0"/>
        <vehicle id="31.0" x="977.46" y="6.80" angle="7.12" type="taxi" speed="1.95" pos="7.05" lane="edge-BS2-BS1_1" slope="0.00" signals="0"/>
        <vehicle id="4.0" x="7.87" y="394.00" angle="90.00" type="passenger5" speed="2.24" pos="7.87" lane="edge-AW2-AW1_2" slope="0.00" signals="0"/>
        <vehicle id="40.0" x="1079.93" y="797.73" angle="189.46" type="taxi" speed="7.72" pos="24.44" lane="edge-BN2-BN1_0" slope="0.00" signals="0"/>
        <vehicle id="41.0" x="1082.85" y="815.22" angle="189.46" type="passenger3" speed="1.96" pos="6.71" lane="edge-BN2-BN1_0" slope="0.00" signals="0"/>
        <vehicle id="44.0" x="1086.37" y="797.39" angle="189.46" type="passenger1" speed="7.62" pos="23.72" lane="edge-BN2-BN1_2" slope="0.00" signals="0"/>
        <vehicle id="47.0" x="1083.22" y="797.96" angle="189.46" type="taxi" speed="7.19" pos="23.68" lane="edge-BN2-BN1_1" slope="0.00" signals="0"/>
        <vehicle id="49.0" x="1085.99" y="814.58" angle="189.46" type="taxi" speed="1.73" pos="6.83" lane="edge-BN2-BN1_1" slope="0.00" signals="0"/>
        <vehicle id="81.0" x="2207.43" y="776.82" angle="170.07" type="taxi" speed="7.15" pos="23.25" lane="edge-DN1-DO0_0" slope="0.00" signals="0"/>
        <vehicle id="82.0" x="2204.72" y="792.29" angle="170.07" type="passenger1" speed="2.44" pos="7.54" lane="edge-DN1-DO0_0" slope="0.00" signals="0"/>
        <vehicle id="92.0" x="2726.60" y="19.88" angle="0.00" type="passenger5" speed="6.43" pos="19.88" lane="edge-ES2-ES1_1" slope="0.00" signals="0"/>
        <vehicle id="93.0" x="2726.60" y="6.33" angle="0.00" type="passenger1" speed="1.23" pos="6.33" lane="edge-ES2-ES1_1" slope="0.00" signals="0"/>
        <vehicle id="AA1" x="27.43" y="386.00" angle="90.00" type="bus" speed="5.03" pos="27.43" lane="edge-AW2-AW1_0" slope="0.00" signals="0"/>
        <vehicle id="AB1" x="12.10" y="386.00" angle="90.00" type="bus" speed="0.00" pos="12.10" lane="edge-AW2-AW1_0" slope="0.00" signals="0"/>
        <vehicle id="AO1" x="503.40" y="766.61" angle="165.96" type="bus" speed="8.89" pos="33.22" lane="edge-AN2-AN1_0" slope="0.00" signals="0"/>
        <vehicle id="AP1" x="498.27" y="787.10" angle="165.96" type="bus" speed="0.00" pos="12.10" lane="edge-AN2-AN1_0" slope="0.00" signals="0"/>
        <vehicle id="BA1" x="983.47" y="29.05" angle="7.13" type="bus" speed="7.81" pos="29.88" lane="edge-BS2-BS1_0" slope="0.00" signals="0"/>
        <vehicle id="BC1" x="981.26" y="11.41" angle="7.13" type="bus" speed="0.00" pos="12.10" lane="edge-BS2-BS1_0" slope="0.00" signals="0"/>
        <vehicle id="BJ1" x="1088.65" y="791.66" angle="189.46" type="bus" speed="4.42" pos="28.99" lane="edge-BN2-BN1_3" slope="0.00" signals="0"/>
        <vehicle id="BL1" x="1091.43" y="808.32" angle="189.46" type="bus" speed="0.00" pos="12.10" lane="edge-BN2-BN1_3" slope="0.00" signals="0"/>
        <vehicle id="CA1" x="1746.60" y="31.10" angle="0.00" type="bus" speed="7.64" pos="31.10" lane="edge-CS2-CS1_0" slope="0.00" signals="0"/>
        <vehicle id="CE1" x="1746.60" y="12.10" angle="0.00" type="bus" speed="0.00" pos="12.10" lane="edge-CS2-CS1_0" slope="0.00" signals="0"/>
        <vehicle id="CJ1" x="1743.40" y="766.73" angle="180.00" type="bus" speed="8.30" pos="33.27" lane="edge-CN2-CN1_0" slope="0.00" signals="0"/>
        <vehicle id="CN1" x="1743.40" y="787.90" angle="180.00" type="bus" speed="0.00" pos="12.10" lane="edge-CN2-CN1_0" slope="0.00" signals="0"/>
        <vehicle id="DA1" x="2239.47" y="28.63" angle="5.71" type="bus" speed="7.01" pos="28.93" lane="edge-DS2-DS1_0" slope="0.00" signals="0"/>
        <vehicle id="DB1" x="2237.79" y="11.88" angle="5.71" type="bus" speed="0.00" pos="12.10" lane="edge-DS2-DS1_0" slope="0.00" signals="0"/>
        <vehicle id="EA1" x="3197.11" y="414.88" angle="270.00" type="bus" speed="4.29" pos="27.89" lane="edge-EE2-EE1_0" slope="0.00" signals="8"/>
        <vehicle id="EB1" x="3212.90" y="414.88" angle="270.00" type="bus" speed="0.00" pos="12.10" lane="edge-EE2-EE1_0" slope="0.00" signals="0"/>
        <vehicle id="EJ1" x="2729.80" y="28.83" angle="0.00" type="bus" speed="6.99" pos="28.83" lane="edge-ES2-ES1_0" slope="0.00" signals="0"/>
        <vehicle id="EK1" x="2729.80" y="12.10" angle="0.00" type="bus" speed="0.00" pos="12.10" lane="edge-ES2-ES1_0" slope="0.00" signals="0"/>
        <vehicle id="ES1" x="2717.00" y="769.74" angle="180.00" type="bus" speed="7.14" pos="30.26" lane="edge-EN2-EN1_0" slope="0.00" signals="0"/>
        <vehicle id="ET1" x="2717.00" y="787.90" angle="180.00" type="bus" speed="0.00" pos="12.10" lane="edge-EN2-EN1_0" slope="0.00" signals="0"/>
    </timestep>
    <timestep time="5.00">
        <vehicle id="0.0" x="34.25" y="398.00" angle="90.00" type="passenger1" speed="9.59" pos="34.25" lane="edge-AW2-AW1_3" slope="0.00" signals="0"/>
        <vehicle id="1.0" x="28.14" y="390.00" angle="90.00" type="taxi" speed="7.04" pos="28.14" lane="edge-AW2-AW1_1" slope="0.00" signals="0"/>
        <vehicle id="10.0" x="692.11" y="38.14" angle="345.96" type="passenger1" speed="11.35" pos="38.91" lane="edge-AS2-AS1_0" slope="0.00" signals="0"/>
        <vehicle id="11.0" x="698.05" y="14.39" angle="345.96" type="passenger3" speed="5.15" pos="14.43" lane="edge-AS2-AS1_0" slope="0.00" signals="0"/>
        <vehicle id="112.0" x="2720.20" y="765.09" angle="180.00" type="passenger5" speed="9.85" pos="34.91" lane="edge-EN2-EN1_1" slope="0.00" signals="0"/>
        <vehicle id="113.0" x="2720.20" y="787.17" angle="180.00" type="passenger2" speed="5.16" pos="12.83" lane="edge-EN2-EN1_1" slope="0.00" signals="0"/>
        <vehicle id="114.0" x="3190.74" y="410.63" angle="270.00" type="passenger4" speed="9.52" pos="34.26" lane="edge-EE2-EE1_1" slope="0.00" signals="0"/>
        <vehicle id="115.0" x="3214.24" y="410.63" angle="270.00" type="taxi" speed="3.78" pos="10.76" lane="edge-EE2-EE1_1" slope="0.00" signals="0"/>
        <vehicle id="116.0" x="3220.40" y="410.63" angle="270.00" type="passenger3" speed="0.00" pos="4.60" lane="edge-EE2-EE1_1" slope="0.00" signals="0"/>
        <vehicle id="12.0" x="700.31" y="5.34" angle="345.96" type="taxi" speed="0.00" pos="5.10" lane="edge-AS2-AS1_0" slope="0.00" signals="0"/>
        <vehicle id="121.0" x="3187.68" y="406.38" angle="270.00" type="passenger5" speed="10.43" pos="37.32" lane="edge-EE2-EE1_2" slope="0.00" signals="0"/>
        <vehicle id="123.0" x="3190.41" y="402.13" angle="270.00" type="passenger1" speed="9.35" pos="34.59" lane="edge-EE2-EE1_3" slope="0.00" signals="0"/>
        <vehicle id="2.0" x="38.34" y="394.00" angle="90.00" type="passenger3" speed="10.36" pos="38.34" lane="edge-AW2-AW1_2" slope="0.00" signals="0"/>
        <vehicle id="22.0" x="508.27" y="760.34" angle="165.96" type="passenger4" speed="11.72" pos="40.48" lane="edge-AN2-AN1_1" slope="0.00" signals="0"/>
        <vehicle id="23.0" x="500.97" y="789.53" angle="165.96" type="taxi" speed="3.18" pos="10.39" lane="edge-AN2-AN1_1" slope="0.00" signals="0"/>
        <vehicle id="3.0" x="11.88" y="390.00" angle="90.00" type="passenger3" speed="4.64" pos="11.88" lane="edge-AW2-AW1_1" slope="0.00" signals="0"/>
        <vehicle id="30.0" x="980.67" y="32.41" angle="7.12" type="passenger5" speed="9.27" pos="32.86" lane="edge-BS2-BS1_1" slope="0.00" signals="0"/>
        <vehicle id="31.0" x="977.95" y="10.70" angle="7.12" type="taxi" speed="3.93" pos="10.98" lane="edge-BS2-BS1_1" slope="0.00" signals="0"/>
        <vehicle id="4.0" x="11.34" y="394.00" angle="90.00" type="passenger5" speed="3.46" pos="11.34" lane="edge-AW2-AW1_2" slope="0.00" signals="0"/>
        <vehicle id="40.0" x="1078.44" y="788.78" angle="189.46" type="taxi" speed="9.08" pos="33.52" lane="edge-BN2-BN1_0" slope="0.00" signals="0"/>
        <vehicle id="41.0" x="1082.28" y="811.83" angle="189.46" type="passenger3" speed="3.44" pos="10.15" lane="edge-BN2-BN1_0" slope="0.00" signals="0"/>
        <vehicle id="44.0" x="1084.71" y="787.44" angle="189.46" type="passenger1" speed="10.09" pos="33.81" lane="edge-BN2-BN1_2" slope="0.00" signals="0"/>
        <vehicle id="47.0" x="1081.82" y="789.57" angle="189.46" type="taxi" speed="8.50" pos="32.19" lane="edge-BN2-BN1_1" slope="0.00" signals="0"/>
        <vehicle id="49.0" x="1085.44" y="811.33" angle="189.46" type="taxi" speed="3.30" pos="10.13" lane="edge-BN2-BN1_1" slope="0.00" signals="0"/>
        <vehicle id="5.0" x="5.10" y="390.00" angle="90.00" type="taxi" speed="0.00" pos="5.10" lane="edge-AW2-AW1_1" slope="0.00" signals="0"/>