<?xml version="1.0" encoding="UTF-8"?>

<!-- generated on 03/19/19 20:23:02 by Eclipse SUMO GUI Version 1.0.1
<configuration xmlns:xsi="http://www.w3.org/2001/XMLSchema-instance" xsi:noNamespaceSchemaLocation="http://sumo.dlr.de/xsd/sumoConfiguration.xsd">

    <input>
        <net-file value="b.net.xml"/>
        <route-files value="b.rou.xml"/>
        <additional-files value="b.det.xml,vtypes.add.xml,bus_stops.add.xml,busses.rou.xml,tls.add.xml"/>
    </input>

    <output>
        <fcd-output value="fcd.xml"/>
        <fcd-output.signals value="true"/>
        <queue-output value="queue.xml"/>
        <tripinfo-output value="tripinfo.xml"/>
    </output>

    <time>
        <begin value="0"/>
        <end value="5400"/>
    </time>

    <processing>
        <ignore-junction-blocker value="20"/>
        <collision.action value="remove"/>
        <time-to-teleport value="-1"/>
    </processing>

    <report>
        <log value="sumo_log.txt"/>
        <no-step-log value="true"/>
    </report>

    <traci_server>
        <remote-port value="62305"/>
    </traci_server>

</configuration>
-->

<queue-export xmlns:xsi="http://www.w3.org/2001/XMLSchema-instance" xsi:noNamespaceSchemaLocation="http://sumo.dlr.de/xsd/queue_file.xsd">
    <data timestep="0.00">
        <lanes/>
    </data>
    <data timestep="1.00">
        <lanes/>
    </data>
    <data timestep="2.00">
        <lanes/>
    </data>
    <data timestep="3.00">
        <lanes/>
    </data>
    <data timestep="4.00">
        <lanes/>
    </data>
    <data timestep="5.00">
        <lanes/>
    </data>
    <data timestep="6.00">
        <lanes/>
    </data>
    <data timestep="7.00">
        <lanes/>
    </data>
    <data timestep="8.00">
        <lanes/>
    </data>
    <data timestep="9.00">
        <lanes/>
    </data>
    <data timestep="10.00">
        <lanes/>
    </data>
    <data timestep="11.00">
        <lanes/>
    </data>
    <data timestep="12.00">
        <lanes>
            <lane id="edge-EN2-EN1_0" queueing_time="0.00" queueing_length="0.00" queueing_length_experimental="208.24"/>
        </lanes>
    </data>
    <data timestep="13.00">
        <lanes>
            <lane id="edge-CN2-CN1_0" queueing_time="0.00" queueing_length="0.00" queueing_length_experimental="188.01"/>
            <lane id="edge-EN2-EN1_0" queueing_time="0.00" queueing_length="0.00" queueing_length_experimental="208.03"/>
        </lanes>
    </data>
    <data timestep="14.00">
        <lanes>
            <lane id="edge-CN2-CN1_0" queueing_time="0.00" queueing_length="0.00" queueing_length_experimental="188.01"/>
            <lane id="edge-DS2-DS1_0" queueing_time="0.00" queueing_length="0.00" queueing_length_experimental="189.64"/>
            <lane id="edge-EN2-EN1_0" queueing_time="0.00" queueing_length="0.00" queueing_length_experimental="208.01"/>
            <lane id="edge-ES2-ES1_0" queueing_time="0.00" queueing_length="0.00" queueing_length_experimental="188.07"/>
        </lanes>
    </data>
    <data timestep="15.00">
        <lanes>
            <lane id="edge-CN2-CN1_0" queueing_time="0.00" queueing_length="0.00" queueing_length_experimental="188.01"/>
            <lane id="edge-DS2-DS1_0" queueing_time="0.00" queueing_length="0.00" queueing_length_experimental="189.51"/>
            <lane id="edge-EN2-EN1_0" queueing_time="1.00" queueing_length="295.90" queueing_length_experimental="223.21"/>
            <lane id="edge-ES2-ES1_0" queueing_time="0.00" queueing_length="0.00" queueing_length_experimental="188.01"/>
        </lanes>
    </data>
    <data timestep="16.00">
        <lanes>
            <lane id="edge-CN2-CN1_0" queueing_time="0.00" queueing_length="0.00" queueing_length_experimental="203.18"/>
            <lane id="edge-DS2-DS1_0" queueing_time="0.00" queueing_length="0.00" queueing_length_experimental="204.55"/>
            <lane id="edge-EN2-EN1_0" queueing_time="0.00" queueing_length="0.00" queueing_length_experimental="223.08"/>
            <lane id="edge-ES2-ES1_0" queueing_time="0.00" queueing_length="0.00" queueing_length_experimental="188.01"/>
        </lanes>
    </data>
    <data timestep="17.00">
        <lanes>
            <lane id="edge-CN2-CN1_0" queueing_time="0.00" queueing_length="0.00" queueing_length_experimental="203.04"/>
            <lane id="edge-CS2-CS1_0" queueing_time="0.00" queueing_length="0.00" queueing_length_experimental="128.08"/>
            <lane id="edge-DS2-DS1_0" queueing_time="1.00" queueing_length="204.51" queueing_length_experimental="204.51"/>
            <lane id="edge-EN2-EN1_0" queueing_time="1.00" queueing_length="223.05" queueing_length_experimental="223.05"/>
            <lane id="edge-ES2-ES1_0" queueing_time="0.00" queueing_length="0.00" queueing_length_experimental="203.08"/>
        </lanes>
    </data>
    <data timestep="18.00">
        <lanes>
            <lane id="edge-CN2-CN1_0" queueing_time="1.00" queueing_length="203.03" queueing_length_experimental="203.03"/>
            <lane id="edge-CS2-CS1_0" queueing_time="0.00" queueing_length="0.00" queueing_length_experimental="128.01"/>
            <lane id="edge-DS2-DS1_0" queueing_time="2.00" queueing_length="204.51" queueing_length_experimental="204.51"/>
            <lane id="edge-EN2-EN1_0" queueing_time="2.00" queueing_length="223.03" queueing_length_experimental="223.03"/>
            <lane id="edge-ES2-ES1_0" queueing_time="1.00" queueing_length="203.08" queueing_length_experimental="203.08"/>
        </lanes>
    </data>
    <data timestep="19.00">
        <lanes>
            <lane id="edge-AN2-AN1_0" queueing_time="0.00" queueing_length="0.00" queueing_length_experimental="117.28"/>
            <lane id="edge-CN2-CN1_0" queueing_time="2.00" queueing_length="203.03" queueing_length_experimental="218.16"/>
            <lane id="edge-CS2-CS1_0" queueing_time="0.00" queueing_length="0.00" queueing_length_experimental="143.35"/>
            <lane id="edge-DS2-DS1_0" queueing_time="3.00" queueing_length="204.51" queueing_length_experimental="219.88"/>
            <lane id="edge-EN2-EN1_0" queueing_time="3.00" queueing_length="223.03" queueing_length_experimental="223.03"/>
            <lane id="edge-ES2-ES1_0" queueing_time="2.00" queueing_length="203.07" queueing_length_experimental="218.28"/>
        </lanes>
    </data>
    <data timestep="20.00">
        <lanes>
            <lane id="edge-AN2-AN1_0" queueing_time="0.00" queueing_length="0.00" queueing_length_experimental="117.24"/>
            <lane id="edge-BN2-BN1_3" queueing_time="0.00" queueing_length="0.00" queueing_length_experimental="230.52"/>
            <lane id="edge-CN2-CN1_0" queueing_time="3.00" queueing_length="203.03" queueing_length_experimental="218.04"/>
            <lane id="edge-CS2-CS1_0" queueing_time="0.00" queueing_length="0.00" queueing_length_experimental="143.18"/>
            <lane id="edge-DS2-DS1_0" queueing_time="4.00" queueing_length="204.51" queueing_length_experimental="219.69"/>
            <lane id="edge-EN2-EN1_0" queueing_time="4.00" queueing_length="238.04" queueing_length_experimental="223.03"/>
            <lane id="edge-ES2-ES1_0" queueing_time="3.00" queueing_length="203.07" queueing_length_experimental="218.17"/>
        </lanes>
    </data>
    <data timestep="21.00">
        <lanes>
            <lane id="edge-AN2-AN1_0" queueing_time="0.00" queueing_length="0.00" queueing_length_experimental="117.24"/>
            <lane id="edge-BN2-BN1_0" queueing_time="1.00" queueing_length="318.21" queueing_length_experimental="0.00"/>
            <lane id="edge-BN2-BN1_3" queueing_time="0.00" queueing_length="0.00" queueing_length_experimental="230.40"/>
            <lane id="edge-CN2-CN1_0" queueing_time="4.00" queueing_length="218.03" queueing_length_experimental="224.62"/>
            <lane id="edge-CS2-CS1_0" queueing_time="1.00" queueing_length="143.09" queueing_length_experimental="143.09"/>
            <lane id="edge-DS2-DS1_0" queueing_time="5.00" queueing_length="204.51" queueing_length_experimental="219.56"/>
            <lane id="edge-EN2-EN1_0" queueing_time="5.00" queueing_length="253.07" queueing_length_experimental="223.03"/>
            <lane id="edge-ES2-ES1_0" queueing_time="4.00" queueing_length="218.11" queueing_length_experimental="218.11"/>
        </lanes>
    </data>
    <data timestep="22.00">
        <lanes>
            <lane id="edge-AN2-AN1_0" queueing_time="0.00" queueing_length="0.00" queueing_length_experimental="132.33"/>
            <lane id="edge-BN2-BN1_3" queueing_time="1.00" queueing_length="245.46" queueing_length_experimental="245.46"/>
            <lane id="edge-CN2-CN1_0" queueing_time="5.00" queueing_length="224.55" queueing_length_experimental="224.55"/>
            <lane id="edge-CS2-CS1_0" queueing_time="2.00" queueing_length="143.09" queueing_length_experimental="158.18"/>
            <lane id="edge-DS2-DS1_0" queueing_time="6.00" queueing_length="219.53" queueing_length_experimental="235.09"/>
            <lane id="edge-EN2-EN1_0" queueing_time="6.00" queueing_length="253.04" queueing_length_experimental="223.03"/>
            <lane id="edge-ES2-ES1_0" queueing_time="5.00" queueing_length="218.08" queueing_length_experimental="233.17"/>
        </lanes>
    </data>
    <data timestep="23.00">
        <lanes>
            <lane id="edge-AN2-AN1_0" queueing_time="1.00" queueing_length="132.29" queueing_length_experimental="132.29"/>
            <lane id="edge-BN2-BN1_3" queueing_time="2.00" queueing_length="260.53" queueing_length_experimental="245.41"/>
            <lane id="edge-CN2-CN1_0" queueing_time="6.00" queueing_length="224.54" queueing_length_experimental="224.54"/>
            <lane id="edge-CS2-CS1_0" queueing_time="3.00" queueing_length="158.11" queueing_length_experimental="158.11"/>
            <lane id="edge-DS2-DS1_0" queueing_time="7.00" queueing_length="219.51" queueing_length_experimental="234.57"/>
            <lane id="edge-EN2-EN1_0" queueing_time="7.00" queueing_length="253.04" queueing_length_experimental="223.03"/>
            <lane id="edge-ES2-ES1_0" queueing_time="6.00" queueing_length="233.12" queueing_length_experimental="233.12"/>
        </lanes>
    </data>
    <data timestep="24.00">
        <lanes>
            <lane id="edge-AN2-AN1_0" queueing_time="2.00" queueing_length="132.28" queueing_length_experimental="132.28"/>
            <lane id="edge-AW2-AW1_0" queueing_time="0.00" queueing_length="0.00" queueing_length_experimental="368.03"/>
            <lane id="edge-BN2-BN1_3" queueing_time="3.00" queueing_length="245.40" queueing_length_experimental="245.40"/>
            <lane id="edge-CN2-CN1_0" queueing_time="7.00" queueing_length="224.53" queueing_length_experimental="224.53"/>
            <lane id="edge-CS2-CS1_0" queueing_time="4.00" queueing_length="158.09" queueing_length_experimental="164.20"/>
            <lane id="edge-DS2-DS1_0" queueing_time="8.00" queueing_length="234.52" queueing_length_experimental="234.52"/>
            <lane id="edge-EN2-EN1_0" queueing_time="8.00" queueing_length="253.03" queueing_length_experimental="223.03"/>
            <lane id="edge-ES2-ES1_0" queueing_time="7.00" queueing_length="233.09" queueing_length_experimental="233.09"/>
        </lanes>
    </data>
    <data timestep="25.00">
        <lanes>
            <lane id="edge-AN2-AN1_0" queueing_time="3.00" queueing_length="132.28" queueing_length_experimental="147.48"/>
            <lane id="edge-AW2-AW1_0" queueing_time="0.00" queueing_length="0.00" queueing_length_experimental="368.01"/>
            <lane id="edge-BN2-BN1_3" queueing_time="4.00" queueing_length="260.41" queueing_length_experimental="245.40"/>
            <lane id="edge-BS2-BS1_0" queueing_time="0.00" queueing_length="0.00" queueing_length_experimental="36.31"/>
            <lane id="edge-CN2-CN1_0" queueing_time="8.00" queueing_length="224.53" queueing_length_experimental="224.53"/>
            <lane id="edge-CS2-CS1_0" queueing_time="5.00" queueing_length="164.11" queueing_length_experimental="164.11"/>
            <lane id="edge-DS2-DS1_0" queueing_time="9.00" queueing_length="234.51" queueing_length_experimental="234.51"/>
            <lane id="edge-EN2-EN1_0" queueing_time="9.00" queueing_length="259.54" queueing_length_experimental="223.03"/>
            <lane id="edge-ES2-ES1_0" queueing_time="8.00" queueing_length="233.08" queueing_length_experimental="233.08"/>
        </lanes>
    </data>
    <data timestep="26.00">
        <lanes>
            <lane id="edge-AN2-AN1_0" queueing_time="4.00" queueing_length="132.28" queueing_length_experimental="147.36"/>
            <lane id="edge-AW2-AW1_0" queueing_time="0.00" queueing_length="0.00" queueing_length_experimental="368.01"/>
            <lane id="edge-BN2-BN1_3" queueing_time="5.00" queueing_length="275.43" queueing_length_experimental="245.40"/>
            <lane id="edge-BS2-BS1_0" queueing_time="0.00" queueing_length="0.00" queueing_length_experimental="36.31"/>
            <lane id="edge-CN2-CN1_0" queueing_time="9.00" queueing_length="230.04" queueing_length_experimental="224.53"/>
            <lane id="edge-CS2-CS1_0" queueing_time="6.00" queueing_length="164.09" queueing_length_experimental="169.63"/>
            <lane id="edge-DS2-DS1_0" queueing_time="10.00" queueing_length="240.02" queueing_length_experimental="234.51"/>
            <lane id="edge-EN2-EN1_0" queueing_time="10.00" queueing_length="259.53" queueing_length_experimental="223.03"/>
            <lane id="edge-ES2-ES1_0" queueing_time="9.00" queueing_length="233.08" queueing_length_experimental="233.08"/>
        </lanes>
    </data>
    <data timestep="27.00">
        <lanes>
            <lane id="edge-AN2-AN1_0" queueing_time="5.00" queueing_length="147.31" queueing_length_experimental="147.31"/>
            <lane id="edge-AW2-AW1_0" queueing_time="1.00" queueing_length="383.08" queueing_length_experimental="368.01"/>
            <lane id="edge-BN2-BN1_3" queueing_time="6.00" queueing_length="275.41" queueing_length_experimental="245.40"/>
            <lane id="edge-BS2-BS1_0" queueing_time="0.00" queueing_length="0.00" queueing_length_experimental="36.31"/>
            <lane id="edge-CN2-CN1_0" queueing_time="10.00" queueing_length="230.04" queueing_length_experimental="224.53"/>
            <lane id="edge-CS2-CS1_0" queueing_time="7.00" queueing_length="169.60" queueing_length_experimental="169.60"/>
            <lane id="edge-DS2-DS1_0" queueing_time="11.00" queueing_length="246.58" queueing_length_experimental="234.51"/>
            <lane id="edge-EN2-EN1_0" queueing_time="11.00" queueing_length="266.06" queueing_length_experimental="223.03"/>
            <lane id="edge-EN2-EN1_1" queueing_time="3.00" queueing_length="259.53" queueing_length_experimental="0.00"/>
            <lane id="edge-ES2-ES1_0" queueing_time="10.00" queueing_length="239.63" queueing_length_experimental="233.08"/>
        </lanes>
    </data>
    <data timestep="28.00">
        <lanes>
            <lane id="edge-AN2-AN1_0" queueing_time="6.00" queueing_length="147.29" queueing_length_experimental="162.57"/>
            <lane id="edge-AW2-AW1_0" queueing_time="0.00" queueing_length="0.00" queueing_length_experimental="368.01"/>
            <lane id="edge-BN2-BN1_3" queueing_time="7.00" queueing_length="290.42" queueing_length_experimental="245.40"/>
            <lane id="edge-BS2-BS1_0" queueing_time="0.00" queueing_length="0.00" queueing_length_experimental="51.46"/>
            <lane id="edge-CN2-CN1_0" queueing_time="11.00" queueing_length="236.55" queueing_length_experimental="224.53"/>
            <lane id="edge-CS2-CS1_0" queueing_time="8.00" queueing_length="169.59" queueing_length_experimental="169.59"/>
            <lane id="edge-DS2-DS1_0" queueing_time="12.00" queueing_length="246.52" queueing_length_experimental="234.51"/>
            <lane id="edge-EN2-EN1_0" queueing_time="12.00" queueing_length="253.03" queueing_length_experimental="223.03"/>
            <lane id="edge-ES2-ES1_0" queueing_time="11.00" queueing_length="239.58" queueing_length_experimental="233.08"/>
        </lanes>
    </data>
    <data timestep="29.00">
        <lanes>
            <lane id="edge-AN2-AN1_0" queueing_time="7.00" queueing_length="147.29" queueing_length_experimental="162.37"/>
            <lane id="edge-AW2-AW1_0" queueing_time="1.00" queueing_length="398.09" queueing_length_experimental="368.01"/>
            <lane id="edge-BN2-BN1_3" queueing_time="8.00" queueing_length="290.41" queueing_length_experimental="245.40"/>
            <lane id="edge-BS2-BS1_0" queueing_time="1.00" queueing_length="51.41" queueing_length_experimental="51.41"/>
            <lane id="edge-CN2-CN1_0" queueing_time="12.00" queueing_length="236.54" queueing_length_experimental="224.53"/>
            <lane id="edge-CS2-CS1_0" queueing_time="9.00" queueing_length="169.59" queueing_length_experimental="176.68"/>
            <lane id="edge-DN1-DO0_0" queueing_time="1.00" queueing_length="376.31" queueing_length_experimental="0.00"/>
            <lane id="edge-DS2-DS1_0" queueing_time="13.00" queueing_length="246.52" queueing_length_experimental="234.51"/>
            <lane id="edge-EN2-EN1_0" queueing_time="13.00" queueing_length="253.03" queueing_length_experimental="223.03"/>
            <lane id="edge-ES2-ES1_0" queueing_time="12.00" queueing_length="239.58" queueing_length_experimental="233.08"/>
        </lanes>
    </data>
    <data timestep="30.00">
        <lanes>
            <lane id="edge-AN2-AN1_0" queueing_time="8.00" queueing_length="162.29" queueing_length_experimental="162.29"/>
            <lane id="edge-AW2-AW1_0" queueing_time="2.00" queueing_length="398.08" queueing_length_experimental="368.01"/>
            <lane id="edge-BN2-BN1_3" queueing_time="9.00" queueing_length="290.40" queueing_length_experimental="245.40"/>
            <lane id="edge-BS2-BS1_0" queueing_time="2.00" queueing_length="51.38" queueing_length_experimental="66.97"/>
            <lane id="edge-CN2-CN1_0" queueing_time="13.00" queueing_length="243.05" queueing_length_experimental="224.53"/>
            <lane id="edge-CS2-CS1_0" queueing_time="10.00" queueing_length="169.59" queueing_length_experimental="176.22"/>
            <lane id="edge-DS2-DS1_0" queueing_time="14.00" queueing_length="246.51" queueing_length_experimental="234.51"/>
            <lane id="edge-EN2-EN1_0" queueing_time="14.00" queueing_length="253.03" queueing_length_experimental="223.03"/>
            <lane id="edge-ES2-ES1_0" queueing_time="13.00" queueing_length="233.08" queueing_length_experimental="233.08"/>
            <lane id="edge-ES2-ES1_1" queueing_time="4.00" queueing_length="239.58" queueing_length_experimental="0.00"/>
        </lanes>
    </data>
    <data timestep="31.00">
        <lanes>
            <lane id="edge-AN2-AN1_0" queueing_time="9.00" queueing_length="162.29" queueing_length_experimental="168.51"/>
            <lane id="edge-AW2-AW1_0" queueing_time="3.00" queueing_length="413.09" queueing_length_experimental="368.01"/>
            <lane id="edge-BN2-BN1_3" queueing_time="10.00" queueing_length="290.40" queueing_length_experimental="245.40"/>
            <lane id="edge-BS2-BS1_0" queueing_time="3.00" queueing_length="51.37" queueing_length_experimental="66.49"/>
            <lane id="edge-CN2-CN1_0" queueing_time="14.00" queueing_length="249.56" queueing_length_experimental="224.53"/>
            <lane id="edge-CS2-CS1_0" queueing_time="11.00" queueing_length="169.59" queueing_length_experimental="176.10"/>
            <lane id="edge-DS2-DS1_0" queueing_time="15.00" queueing_length="252.02" queueing_length_experimental="234.51"/>
            <lane id="edge-EN2-EN1_0" queueing_time="15.00" queueing_length="253.03" queueing_length_experimental="223.03"/>
            <lane id="edge-ES2-ES1_0" queueing_time="14.00" queueing_length="233.08" queueing_length_experimental="233.08"/>
        </lanes>
    </data>
    <data timestep="32.00">
        <lanes>
            <lane id="edge-AN2-AN1_0" queueing_time="10.00" queueing_length="162.29" queueing_length_experimental="168.35"/>
            <lane id="edge-AW2-AW1_0" queueing_time="4.00" queueing_length="413.08" queueing_length_experimental="368.01"/>
            <lane id="edge-BN2-BN1_3" queueing_time="11.00" queueing_length="290.40" queueing_length_experimental="245.40"/>
            <lane id="edge-BS2-BS1_0" queueing_time="4.00" queueing_length="66.39" queueing_length_experimental="66.39"/>
            <lane id="edge-CN2-CN1_0" queueing_time="15.00" queueing_length="249.55" queueing_length_experimental="224.53"/>
            <lane id="edge-CS2-CS1_0" queueing_time="12.00" queueing_length="176.09" queueing_length_experimental="182.60"/>
            <lane id="edge-DS2-DS1_0" queueing_time="16.00" queueing_length="252.02" queueing_length_experimental="234.51"/>
            <lane id="edge-EN2-EN1_0" queueing_time="16.00" queueing_length="253.03" queueing_length_experimental="223.03"/>
            <lane id="edge-EN2-EN1_1" queueing_time="1.00" queueing_length="259.54" queueing_length_experimental="0.00"/>
            <lane id="edge-ES1-EO0_2" queueing_time="0.00" queueing_length="0.00" queueing_length_experimental="6.32"/>
            <lane id="edge-ES2-ES1_0" queueing_time="15.00" queueing_length="233.08" queueing_length_experimental="233.08"/>
        </lanes>
    </data>
    <data timestep="33.00">
        <lanes>
            <lane id="edge-AN2-AN1_0" queueing_time="11.00" queueing_length="168.30" queueing_length_experimental="168.30"/>
            <lane id="edge-AS1-AO0_1" queueing_time="0.00" queueing_length="0.00" queueing_length_experimental="6.03"/>
            <lane id="edge-AW2-AW1_0" queueing_time="5.00" queueing_length="475.86" queueing_length_experimental="368.01"/>
            <lane id="edge-BN2-BN1_0" queueing_time="1.00" queueing_length="318.21" queueing_length_experimental="0.00"/>
            <lane id="edge-BN2-BN1_3" queueing_time="12.00" queueing_length="290.40" queueing_length_experimental="245.40"/>
            <lane id="edge-BS2-BS1_0" queueing_time="5.00" queueing_length="66.38" queueing_length_experimental="81.74"/>
            <lane id="edge-CN2-CN1_0" queueing_time="16.00" queueing_length="255.55" queueing_length_experimental="224.53"/>
            <lane id="edge-CS2-CS1_0" queueing_time="13.00" queueing_length="182.59" queueing_length_experimental="182.59"/>
            <lane id="edge-DS2-DS1_0" queueing_time="17.00" queueing_length="258.53" queueing_length_experimental="234.51"/>
            <lane id="edge-EN2-EN1_0" queueing_time="17.00" queueing_length="253.03" queueing_length_experimental="223.03"/>
            <lane id="edge-ES1-EO0_2" queueing_time="0.00" queueing_length="0.00" queueing_length_experimental="6.15"/>
            <lane id="edge-ES2-ES1_0" queueing_time="16.00" queueing_length="233.08" queueing_length_experimental="233.08"/>
        </lanes>
    </data>
    <data timestep="34.00">
        <lanes>
            <lane id="edge-AN2-AN1_0" queueing_time="12.00" queueing_length="174.81" queueing_length_experimental="174.81"/>
            <lane id="edge-AS1-AO0_0" queueing_time="0.00" queueing_length="0.00" queueing_length_experimental="6.11"/>
            <lane id="edge-AS1-AO0_1" queueing_time="1.00" queueing_length="6.00" queueing_length_experimental="6.00"/>
            <lane id="edge-AW2-AW1_0" queueing_time="6.00" queueing_length="428.09" queueing_length_experimental="368.01"/>
            <lane id="edge-BN2-BN1_3" queueing_time="13.00" queueing_length="290.40" queueing_length_experimental="245.40"/>
            <lane id="edge-BS2-BS1_0" queueing_time="6.00" queueing_length="66.37" queueing_length_experimental="81.38"/>
            <lane id="edge-CN2-CN1_0" queueing_time="17.00" queueing_length="255.54" queueing_length_experimental="224.53"/>
            <lane id="edge-CS2-CS1_0" queueing_time="14.00" queueing_length="182.59" queueing_length_experimental="189.83"/>
            <lane id="edge-DS2-DS1_0" queueing_time="18.00" queueing_length="258.52" queueing_length_experimental="234.51"/>
            <lane id="edge-EE1-EO0_3" queueing_time="0.00" queueing_length="0.00" queueing_length_experimental="6.81"/>
            <lane id="edge-EN2-EN1_0" queueing_time="18.00" queueing_length="253.03" queueing_length_experimental="223.03"/>
            <lane id="edge-ES1-EO0_2" queueing_time="1.00" queueing_length="6.07" queueing_length_experimental="12.79"/>
            <lane id="edge-ES2-ES1_0" queueing_time="17.00" queueing_length="233.08" queueing_length_experimental="233.08"/>
        </lanes>
    </data>
    <data timestep="35.00">
        <lanes>
            <lane id="edge-AN1-AO0_1" queueing_time="1.00" queueing_length="6.01" queueing_length_experimental="6.01"/>
            <lane id="edge-AN2-AN1_0" queueing_time="13.00" queueing_length="174.80" queueing_length_experimental="174.80"/>
            <lane id="edge-AS1-AO0_0" queueing_time="0.00" queueing_length="0.00" queueing_length_experimental="5.65"/>
            <lane id="edge-AS1-AO0_1" queueing_time="2.00" queueing_length="6.00" queueing_length_experimental="6.00"/>
            <lane id="edge-AW2-AW1_0" queueing_time="7.00" queueing_length="443.09" queueing_length_experimental="368.01"/>
            <lane id="edge-BN1-BO0_2" queueing_time="0.00" queueing_length="0.00" queueing_length_experimental="6.05"/>
            <lane id="edge-BN2-BN1_3" queueing_time="14.00" queueing_length="290.40" queueing_length_experimental="245.40"/>
            <lane id="edge-BS2-BS1_0" queueing_time="7.00" queueing_length="81.37" queueing_length_experimental="81.37"/>
            <lane id="edge-CN2-CN1_0" queueing_time="15.00" queueing_length="255.54" queueing_length_experimental="224.53"/>
            <lane id="edge-CS2-CS1_0" queueing_time="15.00" queueing_length="182.59" queueing_length_experimental="189.13"/>
            <lane id="edge-DS2-DS1_0" queueing_time="19.00" queueing_length="258.52" queueing_length_experimental="234.51"/>
            <lane id="edge-EE1-EO0_3" queueing_time="0.00" queueing_length="0.00" queueing_length_experimental="6.38"/>
            <lane id="edge-EN2-EN1_0" queueing_time="19.00" queueing_length="253.03" queueing_length_experimental="223.03"/>
            <lane id="edge-ES1-EO0_2" queueing_time="2.00" queueing_length="6.00" queueing_length_experimental="12.67"/>
            <lane id="edge-ES2-ES1_0" queueing_time="18.00" queueing_length="233.08" queueing_length_experimental="233.08"/>
        </lanes>
    </data>
    <data timestep="36.00">
        <lanes>
            <lane id="edge-AN1-AO0_1" queueing_time="2.00" queueing_length="6.01" queueing_length_experimental="13.05"/>
            <lane id="edge-AN2-AN1_0" queueing_time="14.00" queueing_length="174.79" queueing_length_experimental="174.79"/>
            <lane id="edge-AS1-AO0_0" queueing_time="1.00" queueing_length="5.56" queueing_length_experimental="5.56"/>
            <lane id="edge-AS1-AO0_1" queueing_time="3.00" queueing_length="6.00" queueing_length_experimental="6.00"/>
            <lane id="edge-AW2-AW1_0" queueing_time="8.00" queueing_length="443.09" queueing_length_experimental="368.01"/>
            <lane id="edge-BN1-BO0_2" queueing_time="1.00" queueing_length="6.01" queueing_length_experimental="6.01"/>
            <lane id="edge-BN2-BN1_3" queueing_time="15.00" queueing_length="290.40" queueing_length_experimental="245.40"/>
            <lane id="edge-BS2-BS1_0" queueing_time="8.00" queueing_length="294.16" queueing_length_experimental="96.38"/>
            <lane id="edge-CN2-CN1_0" queueing_time="15.00" queueing_length="255.54" queueing_length_experimental="224.53"/>
            <lane id="edge-CS2-CS1_0" queueing_time="16.00" queueing_length="189.10" queueing_length_experimental="196.30"/>
            <lane id="edge-DS2-DS1_0" queueing_time="20.00" queueing_length="265.02" queueing_length_experimental="234.51"/>
            <lane id="edge-EE1-EO0_3" queueing_time="0.00" queueing_length="0.00" queueing_length_experimental="6.18"/>
            <lane id="edge-EN1-EO0_1" queueing_time="0.00" queueing_length="0.00" queueing_length_experimental="5.55"/>
            <lane id="edge-EN2-EN1_0" queueing_time="17.00" queueing_length="253.03" queueing_length_experimental="0.00"/>
            <lane id="edge-ES1-EO0_2" queueing_time="3.00" queueing_length="6.00" queueing_length_experimental="12.52"/>
            <lane id="edge-ES2-ES1_0" queueing_time="19.00" queueing_length="233.08" queueing_length_experimental="233.08"/>
        </lanes>
    </data>
    <data timestep="37.00">
        <lanes>
            <lane id="edge-AN1-AO0_1" queueing_time="3.00" queueing_length="6.00" queueing_length_experimental="6.00"/>
            <lane id="edge-AN1-AO0_2" queueing_time="0.00" queueing_length="0.00" queueing_length_experimental="12.76"/>
            <lane id="edge-AN2-AN1_0" queueing_time="15.00" queueing_length="174.79" queueing_length_experimental="174.79"/>
            <lane id="edge-AS1-AO0_0" queueing_time="2.00" queueing_length="5.51" queueing_length_experimental="5.51"/>
            <lane id="edge-AS1-AO0_1" queueing_time="4.00" queueing_length="6.00" queueing_length_experimental="6.00"/>
            <lane id="edge-AW2-AW1_0" queueing_time="9.00" queueing_length="473.18" queueing_length_experimental="368.01"/>
            <lane id="edge-BN1-BO0_2" queueing_time="2.00" queueing_length="6.00" queueing_length_experimental="6.00"/>
            <lane id="edge-BN2-BN1_3" queueing_time="16.00" queueing_length="290.40" queueing_length_experimental="245.40"/>
            <lane id="edge-BS2-BS1_0" queueing_time="9.00" queueing_length="96.37" queueing_length_experimental="96.37"/>
            <lane id="edge-CN2-CN1_0" queueing_time="12.00" queueing_length="261.05" queueing_length_experimental="223.29"/>
            <lane id="edge-CS2-CS1_0" queueing_time="17.00" queueing_length="189.09" queueing_length_experimental="195.90"/>