<?xml version="1.0" encoding="UTF-8"?>

<!-- generated on 03/19/19 20:23:02 by Eclipse SUMO GUI Version 1.0.1
<configuration xmlns:xsi="http://www.w3.org/2001/XMLSchema-instance" xsi:noNamespaceSchemaLocation="http://sumo.dlr.de/xsd/sumoConfiguration.xsd">

    <input>
        <net-file value="b.net.xml"/>
        <route-files value="b.rou.xml"/>
        <additional-files value="b.det.xml,vtypes.add.xml,bus_stops.add.xml,busses.rou.xml,tls.add.xml"/>
    </input>

    <output>
        <fcd-output value="fcd.xml"/>
        <fcd-output.signals value="true"/>
        <queue-output value="queue.xml"/>
        <tripinfo-output value="tripinfo.xml"/>
    </output>

    <time>
        <begin value="0"/>
        <end value="5400"/>
    </time>

    <processing>
        <ignore-junction-blocker value="20"/>
        <collision.action value="remove"/>
        <time-to-teleport value="-1"/>
    </processing>

    <report>
        <log value="sumo_log.txt"/>
        <no-step-log value="true"/>
    </report>

    <traci_server>
        <remote-port value="62305"/>
    </traci_server>

</configuration>
-->

<tripinfos xmlns:xsi="http://www.w3.org/2001/XMLSchema-instance" xsi:noNamespaceSchemaLocation="http://sumo.dlr.de/xsd/tripinfo_file.xsd">
</tripinfos>
